
Host: DESKTOP-LU4DJEU

Timers On : Sat Dec 16 21:04:36 2023
Timers Off: Sat Dec 16 21:04:37 2023

Wall Time:        1.15 seconds

                                                       Time (seconds)
Module                                       User      System        Wall        Calls

--------------------------------------------------------------------------------------

**************************************************************************************

Host: DESKTOP-LU4DJEU

Timers On : Sat Dec 16 21:05:14 2023
Timers Off: Sat Dec 16 21:05:15 2023

Wall Time:        0.67 seconds

                                                       Time (seconds)
Module                                       User      System        Wall        Calls

--------------------------------------------------------------------------------------

**************************************************************************************

Host: DESKTOP-LU4DJEU

Timers On : Sat Dec 16 21:05:20 2023
Timers Off: Sat Dec 16 21:05:21 2023

Wall Time:        0.67 seconds

                                                       Time (seconds)
Module                                       User      System        Wall        Calls

--------------------------------------------------------------------------------------

**************************************************************************************

Host: DESKTOP-LU4DJEU

Timers On : Sat Dec 16 21:05:57 2023
Timers Off: Sat Dec 16 21:05:58 2023

Wall Time:        0.66 seconds

                                                       Time (seconds)
Module                                       User      System        Wall        Calls

--------------------------------------------------------------------------------------

**************************************************************************************

Host: DESKTOP-LU4DJEU

Timers On : Sat Dec 16 21:06:04 2023
Timers Off: Sat Dec 16 21:06:04 2023

Wall Time:        0.68 seconds

                                                       Time (seconds)
Module                                       User      System        Wall        Calls

--------------------------------------------------------------------------------------

**************************************************************************************

Host: DESKTOP-LU4DJEU

Timers On : Sat Dec 16 21:06:33 2023
Timers Off: Sat Dec 16 21:06:33 2023

Wall Time:        0.67 seconds

                                                       Time (seconds)
Module                                       User      System        Wall        Calls

--------------------------------------------------------------------------------------

**************************************************************************************

Host: DESKTOP-LU4DJEU

Timers On : Sat Dec 16 21:06:36 2023
Timers Off: Sat Dec 16 21:06:37 2023

Wall Time:        0.73 seconds

                                                       Time (seconds)
Module                                       User      System        Wall        Calls

--------------------------------------------------------------------------------------

**************************************************************************************

Host: DESKTOP-LU4DJEU

Timers On : Sat Dec 16 21:06:56 2023
Timers Off: Sat Dec 16 21:06:56 2023

Wall Time:        0.68 seconds

                                                       Time (seconds)
Module                                       User      System        Wall        Calls

--------------------------------------------------------------------------------------

**************************************************************************************

Host: DESKTOP-LU4DJEU

Timers On : Sat Dec 16 21:07:23 2023
Timers Off: Sat Dec 16 21:07:24 2023

Wall Time:        0.97 seconds

                                                       Time (seconds)
Module                                       User      System        Wall        Calls

--------------------------------------------------------------------------------------

**************************************************************************************

Host: DESKTOP-LU4DJEU

Timers On : Sat Dec 16 21:08:42 2023
Timers Off: Sat Dec 16 21:08:43 2023

Wall Time:        0.84 seconds

                                                       Time (seconds)
Module                                       User      System        Wall        Calls

--------------------------------------------------------------------------------------

**************************************************************************************

Host: DESKTOP-LU4DJEU

Timers On : Sat Dec 16 21:09:25 2023
Timers Off: Sat Dec 16 21:09:26 2023

Wall Time:        0.84 seconds

                                                       Time (seconds)
Module                                       User      System        Wall        Calls

--------------------------------------------------------------------------------------

**************************************************************************************

Host: DESKTOP-LU4DJEU

Timers On : Sat Dec 16 21:09:52 2023
Timers Off: Sat Dec 16 21:09:53 2023

Wall Time:        0.82 seconds

                                                       Time (seconds)
Module                                       User      System        Wall        Calls

--------------------------------------------------------------------------------------

**************************************************************************************

Host: DESKTOP-LU4DJEU

Timers On : Sat Dec 16 21:09:55 2023
Timers Off: Sat Dec 16 21:09:56 2023

Wall Time:        0.84 seconds

                                                       Time (seconds)
Module                                       User      System        Wall        Calls

--------------------------------------------------------------------------------------

**************************************************************************************
