
Host: DESKTOP-LU4DJEU

Timers On : Sat Dec  2 21:22:36 2023
Timers Off: Sat Dec  2 21:22:46 2023

Wall Time:        9.79 seconds

                                                       Time (seconds)
Module                                       User      System        Wall        Calls

--------------------------------------------------------------------------------------

**************************************************************************************
