
Host: DESKTOP-LU4DJEU

Timers On : Sat Dec 16 21:04:36 2023
Timers Off: Sat Dec 16 21:04:37 2023

Wall Time:        1.15 seconds

                                                       Time (seconds)
Module                                       User      System        Wall        Calls

--------------------------------------------------------------------------------------

**************************************************************************************

Host: DESKTOP-LU4DJEU

Timers On : Sat Dec 16 21:05:14 2023
Timers Off: Sat Dec 16 21:05:15 2023

Wall Time:        0.67 seconds

                                                       Time (seconds)
Module                                       User      System        Wall        Calls

--------------------------------------------------------------------------------------

**************************************************************************************

Host: DESKTOP-LU4DJEU

Timers On : Sat Dec 16 21:05:20 2023
Timers Off: Sat Dec 16 21:05:21 2023

Wall Time:        0.67 seconds

                                                       Time (seconds)
Module                                       User      System        Wall        Calls

--------------------------------------------------------------------------------------

**************************************************************************************

Host: DESKTOP-LU4DJEU

Timers On : Sat Dec 16 21:05:57 2023
Timers Off: Sat Dec 16 21:05:58 2023

Wall Time:        0.66 seconds

                                                       Time (seconds)
Module                                       User      System        Wall        Calls

--------------------------------------------------------------------------------------

**************************************************************************************

Host: DESKTOP-LU4DJEU

Timers On : Sat Dec 16 21:06:04 2023
Timers Off: Sat Dec 16 21:06:04 2023

Wall Time:        0.68 seconds

                                                       Time (seconds)
Module                                       User      System        Wall        Calls

--------------------------------------------------------------------------------------

**************************************************************************************

Host: DESKTOP-LU4DJEU

Timers On : Sat Dec 16 21:06:33 2023
Timers Off: Sat Dec 16 21:06:33 2023

Wall Time:        0.67 seconds

                                                       Time (seconds)
Module                                       User      System        Wall        Calls

--------------------------------------------------------------------------------------

**************************************************************************************

Host: DESKTOP-LU4DJEU

Timers On : Sat Dec 16 21:06:36 2023
Timers Off: Sat Dec 16 21:06:37 2023

Wall Time:        0.73 seconds

                                                       Time (seconds)
Module                                       User      System        Wall        Calls

--------------------------------------------------------------------------------------

**************************************************************************************

Host: DESKTOP-LU4DJEU

Timers On : Sat Dec 16 21:06:56 2023
Timers Off: Sat Dec 16 21:06:56 2023

Wall Time:        0.68 seconds

                                                       Time (seconds)
Module                                       User      System        Wall        Calls

--------------------------------------------------------------------------------------

**************************************************************************************

Host: DESKTOP-LU4DJEU

Timers On : Sat Dec 16 21:07:23 2023
Timers Off: Sat Dec 16 21:07:24 2023

Wall Time:        0.97 seconds

                                                       Time (seconds)
Module                                       User      System        Wall        Calls

--------------------------------------------------------------------------------------

**************************************************************************************

Host: DESKTOP-LU4DJEU

Timers On : Sat Dec 16 21:08:42 2023
Timers Off: Sat Dec 16 21:08:43 2023

Wall Time:        0.84 seconds

                                                       Time (seconds)
Module                                       User      System        Wall        Calls

--------------------------------------------------------------------------------------

**************************************************************************************

Host: DESKTOP-LU4DJEU

Timers On : Sat Dec 16 21:09:25 2023
Timers Off: Sat Dec 16 21:09:26 2023

Wall Time:        0.84 seconds

                                                       Time (seconds)
Module                                       User      System        Wall        Calls

--------------------------------------------------------------------------------------

**************************************************************************************

Host: DESKTOP-LU4DJEU

Timers On : Sat Dec 16 21:09:52 2023
Timers Off: Sat Dec 16 21:09:53 2023

Wall Time:        0.82 seconds

                                                       Time (seconds)
Module                                       User      System        Wall        Calls

--------------------------------------------------------------------------------------

**************************************************************************************

Host: DESKTOP-LU4DJEU

Timers On : Sat Dec 16 21:09:55 2023
Timers Off: Sat Dec 16 21:09:56 2023

Wall Time:        0.84 seconds

                                                       Time (seconds)
Module                                       User      System        Wall        Calls

--------------------------------------------------------------------------------------

**************************************************************************************

Host: DESKTOP-LU4DJEU

Timers On : Sat Dec 16 21:10:44 2023
Timers Off: Sat Dec 16 21:10:45 2023

Wall Time:        0.82 seconds

                                                       Time (seconds)
Module                                       User      System        Wall        Calls

--------------------------------------------------------------------------------------

**************************************************************************************

Host: DESKTOP-LU4DJEU

Timers On : Sat Dec 16 21:10:56 2023
Timers Off: Sat Dec 16 21:10:57 2023

Wall Time:        0.94 seconds

                                                       Time (seconds)
Module                                       User      System        Wall        Calls

--------------------------------------------------------------------------------------

**************************************************************************************

Host: DESKTOP-LU4DJEU

Timers On : Sun Dec 17 12:31:59 2023
Timers Off: Sun Dec 17 12:32:01 2023

Wall Time:        1.64 seconds

                                                       Time (seconds)
Module                                       User      System        Wall        Calls

--------------------------------------------------------------------------------------

**************************************************************************************

Host: DESKTOP-LU4DJEU

Timers On : Sun Dec 17 12:32:44 2023
Timers Off: Sun Dec 17 12:32:45 2023

Wall Time:        0.92 seconds

                                                       Time (seconds)
Module                                       User      System        Wall        Calls

--------------------------------------------------------------------------------------

**************************************************************************************

Host: DESKTOP-LU4DJEU

Timers On : Sun Dec 17 12:32:54 2023
Timers Off: Sun Dec 17 12:32:55 2023

Wall Time:        0.90 seconds

                                                       Time (seconds)
Module                                       User      System        Wall        Calls

--------------------------------------------------------------------------------------

**************************************************************************************

Host: DESKTOP-LU4DJEU

Timers On : Sun Dec 17 12:33:13 2023
Timers Off: Sun Dec 17 12:33:14 2023

Wall Time:        0.89 seconds

                                                       Time (seconds)
Module                                       User      System        Wall        Calls

--------------------------------------------------------------------------------------

**************************************************************************************

Host: DESKTOP-LU4DJEU

Timers On : Sun Dec 17 12:37:10 2023
Timers Off: Sun Dec 17 12:37:11 2023

Wall Time:        0.91 seconds

                                                       Time (seconds)
Module                                       User      System        Wall        Calls

--------------------------------------------------------------------------------------

**************************************************************************************

Host: DESKTOP-LU4DJEU

Timers On : Sun Dec 17 12:39:49 2023
Timers Off: Sun Dec 17 12:39:50 2023

Wall Time:        0.87 seconds

                                                       Time (seconds)
Module                                       User      System        Wall        Calls

--------------------------------------------------------------------------------------

**************************************************************************************

Host: DESKTOP-LU4DJEU

Timers On : Sun Dec 17 12:40:35 2023
Timers Off: Sun Dec 17 12:40:36 2023

Wall Time:        0.88 seconds

                                                       Time (seconds)
Module                                       User      System        Wall        Calls

--------------------------------------------------------------------------------------

**************************************************************************************

Host: DESKTOP-LU4DJEU

Timers On : Sun Dec 17 12:42:00 2023
Timers Off: Sun Dec 17 12:43:02 2023

Wall Time:       62.61 seconds

                                                       Time (seconds)
Module                                       User      System        Wall        Calls
DFH: sparsity prep                  :      1.350u      0.050s      0.858w      2 calls
Libint2ERI::Libint2ERI              :      4.517u      0.050s      2.755w     16 calls
JK: (A|mn)                          :      8.417u      0.250s      5.205w      2 calls
JK: (A|Q)^-1/2                      :      1.317u      0.017s      0.805w      1 calls
JK: (Q|mn)                          :      6.800u      0.000s      4.090w      2 calls
HF: Form core H                     :      0.400u      0.017s      0.233w      2 calls
HF: Form S/X                        :      0.033u      0.000s      0.026w      2 calls
HF: Guess                           :      0.100u      0.017s      0.076w      2 calls
SAD Guess                           :      0.100u      0.017s      0.075w      1 calls
HF: Form G                          :     33.717u      1.417s     21.111w     29 calls
JK: D                               :      0.017u      0.000s      0.007w     29 calls
JK: USO2AO                          :      0.000u      0.000s      0.000w     29 calls
JK: JK                              :     33.683u      1.417s     21.097w     29 calls
JK: J                               :      0.867u      0.117s      0.622w     58 calls
JK: J1                              :      0.450u      0.100s      0.300w     58 calls
JK: J2                              :      0.383u      0.017s      0.311w     58 calls
JK: K                               :     32.733u      0.433s     19.876w     58 calls
JK: K1                              :     20.017u      0.433s     12.233w     58 calls
JK: K2                              :     12.717u      0.000s      7.641w     58 calls
JK: (Q|mn) Read                     :      0.067u      0.867s      0.580w     26 calls
JK: AO2USO                          :      0.000u      0.000s      0.000w     29 calls
HF: Form F                          :      0.000u      0.000s      0.003w     29 calls
HF: Form D                          :      0.033u      0.000s      0.006w     29 calls
HF: DIIS                            :      0.283u      0.017s      0.257w     28 calls
HF: Form C                          :      0.533u      0.067s      0.323w     28 calls
Grad: V T Perturb                   :      0.550u      0.000s      0.337w      2 calls
Grad: S                             :      0.033u      0.000s      0.018w      2 calls
Grad: JK                            :     40.517u      0.483s     24.635w      2 calls
JKGrad: Amn                         :     11.583u      0.150s      7.054w      2 calls
JKGrad: Awmn                        :      0.000u      0.000s      0.000w      2 calls
JKGrad: AB                          :      3.633u      0.083s      2.234w      2 calls
JKGrad: UV                          :      0.967u      0.083s      0.627w      2 calls
JKGrad: ABx                         :      0.233u      0.000s      0.146w      2 calls
JKGrad: Amnx                        :     24.083u      0.167s     14.563w      2 calls
Grad: XC                            :      0.000u      0.000s      0.000w      2 calls
JK: (A|Q)^-1                        :      1.317u      0.233s      0.806w      1 calls
JK: (Q|mn) Write                    :      0.000u      0.067s      0.046w      1 calls

--------------------------------------------------------------------------------------
DFH: sparsity prep                  :      1.350u      0.050s      0.858w      2 calls
| Libint2ERI::Libint2ERI            :      0.883u      0.050s      0.577w      2 calls
Libint2ERI::Libint2ERI              :      1.817u      0.000s      1.090w      4 calls
JK: (A|mn)                          :      8.417u      0.250s      5.205w      2 calls
JK: (A|Q)^-1/2                      :      1.317u      0.017s      0.805w      1 calls
| Libint2ERI::Libint2ERI            :      0.000u      0.000s      0.000w      1 calls
JK: (Q|mn)                          :      6.800u      0.000s      4.090w      2 calls
HF: Form core H                     :      0.400u      0.017s      0.233w      2 calls
HF: Form S/X                        :      0.033u      0.000s      0.026w      2 calls
HF: Guess                           :      0.100u      0.017s      0.076w      2 calls
| SAD Guess                         :      0.100u      0.017s      0.075w      1 calls
HF: Form G                          :     33.717u      1.417s     21.111w     29 calls
| JK: D                             :      0.017u      0.000s      0.007w     29 calls
| JK: USO2AO                        :      0.000u      0.000s      0.000w     29 calls
| JK: JK                            :     33.683u      1.417s     21.097w     29 calls
| | JK: J                           :      0.867u      0.117s      0.622w     58 calls
| | | JK: J1                        :      0.450u      0.100s      0.300w     58 calls
| | | JK: J2                        :      0.383u      0.017s      0.311w     58 calls
| | JK: K                           :     32.733u      0.433s     19.876w     58 calls
| | | JK: K1                        :     20.017u      0.433s     12.233w     58 calls
| | | JK: K2                        :     12.717u      0.000s      7.641w     58 calls
| | JK: (Q|mn) Read                 :      0.067u      0.867s      0.580w     26 calls
| JK: AO2USO                        :      0.000u      0.000s      0.000w     29 calls
HF: Form F                          :      0.000u      0.000s      0.003w     29 calls
HF: Form D                          :      0.033u      0.000s      0.006w     29 calls
HF: DIIS                            :      0.283u      0.017s      0.257w     28 calls
HF: Form C                          :      0.533u      0.067s      0.323w     28 calls
Grad: V T Perturb                   :      0.550u      0.000s      0.337w      2 calls
Grad: S                             :      0.033u      0.000s      0.018w      2 calls
Grad: JK                            :     40.517u      0.483s     24.635w      2 calls
| JKGrad: Amn                       :     11.583u      0.150s      7.054w      2 calls
| | Libint2ERI::Libint2ERI          :      0.917u      0.000s      0.546w      2 calls
| JKGrad: Awmn                      :      0.000u      0.000s      0.000w      2 calls
| JKGrad: AB                        :      3.633u      0.083s      2.234w      2 calls
| | Libint2ERI::Libint2ERI          :      0.000u      0.000s      0.000w      2 calls
| JKGrad: UV                        :      0.967u      0.083s      0.627w      2 calls
| JKGrad: ABx                       :      0.233u      0.000s      0.146w      2 calls
| | Libint2ERI::Libint2ERI          :      0.000u      0.000s      0.000w      2 calls
| JKGrad: Amnx                      :     24.083u      0.167s     14.563w      2 calls
| | Libint2ERI::Libint2ERI          :      0.900u      0.000s      0.541w      2 calls
Grad: XC                            :      0.000u      0.000s      0.000w      2 calls
JK: (A|Q)^-1                        :      1.317u      0.233s      0.806w      1 calls
| Libint2ERI::Libint2ERI            :      0.000u      0.000s      0.000w      1 calls
JK: (Q|mn) Write                    :      0.000u      0.067s      0.046w      1 calls

**************************************************************************************

Host: DESKTOP-LU4DJEU

Timers On : Sun Dec 17 12:45:06 2023
Timers Off: Sun Dec 17 12:45:07 2023

Wall Time:        0.90 seconds

                                                       Time (seconds)
Module                                       User      System        Wall        Calls

--------------------------------------------------------------------------------------

**************************************************************************************

Host: DESKTOP-LU4DJEU

Timers On : Sun Dec 17 12:45:35 2023
Timers Off: Sun Dec 17 12:45:36 2023

Wall Time:        0.88 seconds

                                                       Time (seconds)
Module                                       User      System        Wall        Calls

--------------------------------------------------------------------------------------

**************************************************************************************

Host: DESKTOP-LU4DJEU

Timers On : Sun Dec 17 12:50:08 2023
Timers Off: Sun Dec 17 12:50:09 2023

Wall Time:        0.98 seconds

                                                       Time (seconds)
Module                                       User      System        Wall        Calls
DFH: sparsity prep                  :      0.000u      0.000s      0.005w      1 calls
Libint2ERI::Libint2ERI              :      0.000u      0.000s      0.005w      3 calls
DFH: initialize()                   :      0.000u      0.000s      0.005w      1 calls
DFH: AO Construction                :      0.000u      0.000s      0.000w      1 calls
DFH: AO-Met. Contraction            :      0.000u      0.000s      0.000w      1 calls
HF: Form core H                     :      0.000u      0.000s      0.000w      1 calls
HF: Form S/X                        :      0.000u      0.000s      0.000w      1 calls
HF: Guess                           :      0.000u      0.000s      0.000w      1 calls
HF: Form G                          :      0.000u      0.000s      0.000w      6 calls
JK: D                               :      0.000u      0.000s      0.000w      6 calls
JK: USO2AO                          :      0.000u      0.000s      0.000w      6 calls
JK: JK                              :      0.000u      0.000s      0.000w      6 calls
DFH: compute_JK()                   :      0.000u      0.000s      0.000w      6 calls
DFH: Grabbing AOs                   :      0.000u      0.000s      0.000w      6 calls
DFH: compute_J                      :      0.000u      0.000s      0.000w      6 calls
DFH: compute_K                      :      0.000u      0.000s      0.000w      6 calls
JK: AO2USO                          :      0.000u      0.000s      0.000w      6 calls
HF: Form F                          :      0.000u      0.000s      0.000w      6 calls
HF: DIIS                            :      0.033u      0.017s      0.024w      6 calls
HF: Form C                          :      0.000u      0.000s      0.001w      6 calls
HF: Form D                          :      0.000u      0.000s      0.000w      6 calls

--------------------------------------------------------------------------------------
DFH: sparsity prep                  :      0.000u      0.000s      0.005w      1 calls
| Libint2ERI::Libint2ERI            :      0.000u      0.000s      0.004w      1 calls
DFH: initialize()                   :      0.000u      0.000s      0.005w      1 calls
| Libint2ERI::Libint2ERI            :      0.000u      0.000s      0.002w      2 calls
| DFH: AO Construction              :      0.000u      0.000s      0.000w      1 calls
| DFH: AO-Met. Contraction          :      0.000u      0.000s      0.000w      1 calls
HF: Form core H                     :      0.000u      0.000s      0.000w      1 calls
HF: Form S/X                        :      0.000u      0.000s      0.000w      1 calls
HF: Guess                           :      0.000u      0.000s      0.000w      1 calls
HF: Form G                          :      0.000u      0.000s      0.000w      6 calls
| JK: D                             :      0.000u      0.000s      0.000w      6 calls
| JK: USO2AO                        :      0.000u      0.000s      0.000w      6 calls
| JK: JK                            :      0.000u      0.000s      0.000w      6 calls
| | DFH: compute_JK()               :      0.000u      0.000s      0.000w      6 calls
| | | DFH: Grabbing AOs             :      0.000u      0.000s      0.000w      6 calls
| | | DFH: compute_J                :      0.000u      0.000s      0.000w      6 calls
| | | DFH: compute_K                :      0.000u      0.000s      0.000w      6 calls
| JK: AO2USO                        :      0.000u      0.000s      0.000w      6 calls
HF: Form F                          :      0.000u      0.000s      0.000w      6 calls
HF: DIIS                            :      0.033u      0.017s      0.024w      6 calls
HF: Form C                          :      0.000u      0.000s      0.001w      6 calls
HF: Form D                          :      0.000u      0.000s      0.000w      6 calls

**************************************************************************************

Host: DESKTOP-LU4DJEU

Timers On : Sun Dec 17 14:47:57 2023
Timers Off: Sun Dec 17 14:47:58 2023

Wall Time:        1.76 seconds

                                                       Time (seconds)
Module                                       User      System        Wall        Calls
DFH: sparsity prep                  :      0.000u      0.000s      0.018w      1 calls
Libint2ERI::Libint2ERI              :      0.017u      0.000s      0.018w      3 calls
DFH: initialize()                   :      0.017u      0.000s      0.009w      1 calls
DFH: AO Construction                :      0.000u      0.000s      0.002w      1 calls
DFH: AO-Met. Contraction            :      0.000u      0.000s      0.000w      1 calls
HF: Form core H                     :      0.000u      0.000s      0.002w      1 calls
HF: Form S/X                        :      0.000u      0.000s      0.000w      1 calls
HF: Guess                           :      0.000u      0.000s      0.000w      1 calls
HF: Form G                          :      0.000u      0.000s      0.000w      6 calls
JK: D                               :      0.000u      0.000s      0.000w      6 calls
JK: USO2AO                          :      0.000u      0.000s      0.000w      6 calls
JK: JK                              :      0.000u      0.000s      0.000w      6 calls
DFH: compute_JK()                   :      0.000u      0.000s      0.000w      6 calls
DFH: Grabbing AOs                   :      0.000u      0.000s      0.000w      6 calls
DFH: compute_J                      :      0.000u      0.000s      0.000w      6 calls
DFH: compute_K                      :      0.000u      0.000s      0.000w      6 calls
JK: AO2USO                          :      0.000u      0.000s      0.000w      6 calls
HF: Form F                          :      0.000u      0.000s      0.000w      6 calls
HF: DIIS                            :      0.050u      0.000s      0.067w      6 calls
HF: Form C                          :      0.000u      0.000s      0.001w      6 calls
HF: Form D                          :      0.000u      0.000s      0.000w      6 calls

--------------------------------------------------------------------------------------
DFH: sparsity prep                  :      0.000u      0.000s      0.018w      1 calls
| Libint2ERI::Libint2ERI            :      0.000u      0.000s      0.017w      1 calls
DFH: initialize()                   :      0.017u      0.000s      0.009w      1 calls
| Libint2ERI::Libint2ERI            :      0.017u      0.000s      0.002w      2 calls
| DFH: AO Construction              :      0.000u      0.000s      0.002w      1 calls
| DFH: AO-Met. Contraction          :      0.000u      0.000s      0.000w      1 calls
HF: Form core H                     :      0.000u      0.000s      0.002w      1 calls
HF: Form S/X                        :      0.000u      0.000s      0.000w      1 calls
HF: Guess                           :      0.000u      0.000s      0.000w      1 calls
HF: Form G                          :      0.000u      0.000s      0.000w      6 calls
| JK: D                             :      0.000u      0.000s      0.000w      6 calls
| JK: USO2AO                        :      0.000u      0.000s      0.000w      6 calls
| JK: JK                            :      0.000u      0.000s      0.000w      6 calls
| | DFH: compute_JK()               :      0.000u      0.000s      0.000w      6 calls
| | | DFH: Grabbing AOs             :      0.000u      0.000s      0.000w      6 calls
| | | DFH: compute_J                :      0.000u      0.000s      0.000w      6 calls
| | | DFH: compute_K                :      0.000u      0.000s      0.000w      6 calls
| JK: AO2USO                        :      0.000u      0.000s      0.000w      6 calls
HF: Form F                          :      0.000u      0.000s      0.000w      6 calls
HF: DIIS                            :      0.050u      0.000s      0.067w      6 calls
HF: Form C                          :      0.000u      0.000s      0.001w      6 calls
HF: Form D                          :      0.000u      0.000s      0.000w      6 calls

**************************************************************************************

Host: DESKTOP-LU4DJEU

Timers On : Sun Dec 17 15:15:11 2023
Timers Off: Sun Dec 17 15:15:13 2023

Wall Time:        1.42 seconds

                                                       Time (seconds)
Module                                       User      System        Wall        Calls
DFH: sparsity prep                  :      0.033u      0.000s      0.022w      7 calls
Libint2ERI::Libint2ERI              :      0.033u      0.000s      0.027w     21 calls
DFH: initialize()                   :      0.017u      0.000s      0.035w      7 calls
DFH: AO Construction                :      0.017u      0.000s      0.003w      7 calls
DFH: AO-Met. Contraction            :      0.000u      0.000s      0.001w      7 calls
HF: Form core H                     :      0.033u      0.017s      0.003w      7 calls
HF: Form S/X                        :      0.000u      0.000s      0.001w      7 calls
HF: Guess                           :      0.000u      0.000s      0.000w      7 calls
HF: Form G                          :      0.017u      0.000s      0.003w     43 calls
JK: D                               :      0.000u      0.000s      0.000w     43 calls
JK: USO2AO                          :      0.000u      0.000s      0.000w     43 calls
JK: JK                              :      0.017u      0.000s      0.002w     43 calls
DFH: compute_JK()                   :      0.017u      0.000s      0.002w     43 calls
DFH: Grabbing AOs                   :      0.000u      0.000s      0.000w     43 calls
DFH: compute_J                      :      0.017u      0.000s      0.000w     43 calls
DFH: compute_K                      :      0.000u      0.000s      0.001w     43 calls
JK: AO2USO                          :      0.000u      0.000s      0.000w     43 calls
HF: Form F                          :      0.000u      0.000s      0.000w     43 calls
HF: DIIS                            :      0.100u      0.000s      0.071w     43 calls
HF: Form C                          :      0.000u      0.000s      0.006w     43 calls
HF: Form D                          :      0.000u      0.000s      0.000w     43 calls

--------------------------------------------------------------------------------------
DFH: sparsity prep                  :      0.033u      0.000s      0.022w      7 calls
| Libint2ERI::Libint2ERI            :      0.033u      0.000s      0.016w      7 calls
DFH: initialize()                   :      0.017u      0.000s      0.035w      7 calls
| Libint2ERI::Libint2ERI            :      0.000u      0.000s      0.011w     14 calls
| DFH: AO Construction              :      0.017u      0.000s      0.003w      7 calls
| DFH: AO-Met. Contraction          :      0.000u      0.000s      0.001w      7 calls
HF: Form core H                     :      0.033u      0.017s      0.003w      7 calls
HF: Form S/X                        :      0.000u      0.000s      0.001w      7 calls
HF: Guess                           :      0.000u      0.000s      0.000w      7 calls
HF: Form G                          :      0.017u      0.000s      0.003w     43 calls
| JK: D                             :      0.000u      0.000s      0.000w     43 calls
| JK: USO2AO                        :      0.000u      0.000s      0.000w     43 calls
| JK: JK                            :      0.017u      0.000s      0.002w     43 calls
| | DFH: compute_JK()               :      0.017u      0.000s      0.002w     43 calls
| | | DFH: Grabbing AOs             :      0.000u      0.000s      0.000w     43 calls
| | | DFH: compute_J                :      0.017u      0.000s      0.000w     43 calls
| | | DFH: compute_K                :      0.000u      0.000s      0.001w     43 calls
| JK: AO2USO                        :      0.000u      0.000s      0.000w     43 calls
HF: Form F                          :      0.000u      0.000s      0.000w     43 calls
HF: DIIS                            :      0.100u      0.000s      0.071w     43 calls
HF: Form C                          :      0.000u      0.000s      0.006w     43 calls
HF: Form D                          :      0.000u      0.000s      0.000w     43 calls

**************************************************************************************

Host: DESKTOP-LU4DJEU

Timers On : Sun Dec 17 15:33:53 2023
Timers Off: Sun Dec 17 15:33:55 2023

Wall Time:        1.43 seconds

                                                       Time (seconds)
Module                                       User      System        Wall        Calls
DFH: sparsity prep                  :      0.000u      0.000s      0.023w      7 calls
Libint2ERI::Libint2ERI              :      0.017u      0.000s      0.028w     21 calls
DFH: initialize()                   :      0.083u      0.000s      0.036w      7 calls
DFH: AO Construction                :      0.000u      0.000s      0.003w      7 calls
DFH: AO-Met. Contraction            :      0.000u      0.000s      0.001w      7 calls
HF: Form core H                     :      0.000u      0.000s      0.004w      7 calls
HF: Form S/X                        :      0.000u      0.000s      0.001w      7 calls
HF: Guess                           :      0.000u      0.000s      0.000w      7 calls
HF: Form G                          :      0.000u      0.000s      0.003w     43 calls
JK: D                               :      0.000u      0.000s      0.000w     43 calls
JK: USO2AO                          :      0.000u      0.000s      0.000w     43 calls
JK: JK                              :      0.000u      0.000s      0.002w     43 calls
DFH: compute_JK()                   :      0.000u      0.000s      0.002w     43 calls
DFH: Grabbing AOs                   :      0.000u      0.000s      0.000w     43 calls
DFH: compute_J                      :      0.000u      0.000s      0.000w     43 calls
DFH: compute_K                      :      0.000u      0.000s      0.001w     43 calls
JK: AO2USO                          :      0.000u      0.000s      0.000w     43 calls
HF: Form F                          :      0.000u      0.000s      0.000w     43 calls
HF: DIIS                            :      0.133u      0.017s      0.074w     43 calls
HF: Form C                          :      0.017u      0.000s      0.006w     43 calls
HF: Form D                          :      0.000u      0.000s      0.000w     43 calls

--------------------------------------------------------------------------------------
DFH: sparsity prep                  :      0.000u      0.000s      0.023w      7 calls
| Libint2ERI::Libint2ERI            :      0.000u      0.000s      0.017w      7 calls
DFH: initialize()                   :      0.083u      0.000s      0.036w      7 calls
| Libint2ERI::Libint2ERI            :      0.017u      0.000s      0.011w     14 calls
| DFH: AO Construction              :      0.000u      0.000s      0.003w      7 calls
| DFH: AO-Met. Contraction          :      0.000u      0.000s      0.001w      7 calls
HF: Form core H                     :      0.000u      0.000s      0.004w      7 calls
HF: Form S/X                        :      0.000u      0.000s      0.001w      7 calls
HF: Guess                           :      0.000u      0.000s      0.000w      7 calls
HF: Form G                          :      0.000u      0.000s      0.003w     43 calls
| JK: D                             :      0.000u      0.000s      0.000w     43 calls
| JK: USO2AO                        :      0.000u      0.000s      0.000w     43 calls
| JK: JK                            :      0.000u      0.000s      0.002w     43 calls
| | DFH: compute_JK()               :      0.000u      0.000s      0.002w     43 calls
| | | DFH: Grabbing AOs             :      0.000u      0.000s      0.000w     43 calls
| | | DFH: compute_J                :      0.000u      0.000s      0.000w     43 calls
| | | DFH: compute_K                :      0.000u      0.000s      0.001w     43 calls
| JK: AO2USO                        :      0.000u      0.000s      0.000w     43 calls
HF: Form F                          :      0.000u      0.000s      0.000w     43 calls
HF: DIIS                            :      0.133u      0.017s      0.074w     43 calls
HF: Form C                          :      0.017u      0.000s      0.006w     43 calls
HF: Form D                          :      0.000u      0.000s      0.000w     43 calls

**************************************************************************************

Host: DESKTOP-LU4DJEU

Timers On : Sun Dec 17 15:34:26 2023
Timers Off: Sun Dec 17 15:34:27 2023

Wall Time:        1.44 seconds

                                                       Time (seconds)
Module                                       User      System        Wall        Calls
DFH: sparsity prep                  :      0.017u      0.000s      0.024w      7 calls
Libint2ERI::Libint2ERI              :      0.000u      0.017s      0.028w     21 calls
DFH: initialize()                   :      0.067u      0.017s      0.034w      7 calls
DFH: AO Construction                :      0.000u      0.000s      0.004w      7 calls
DFH: AO-Met. Contraction            :      0.017u      0.000s      0.001w      7 calls
HF: Form core H                     :      0.000u      0.000s      0.005w      7 calls
HF: Form S/X                        :      0.000u      0.000s      0.001w      7 calls
HF: Guess                           :      0.000u      0.000s      0.000w      7 calls
HF: Form G                          :      0.000u      0.000s      0.003w     43 calls
JK: D                               :      0.000u      0.000s      0.000w     43 calls
JK: USO2AO                          :      0.000u      0.000s      0.000w     43 calls
JK: JK                              :      0.000u      0.000s      0.002w     43 calls
DFH: compute_JK()                   :      0.000u      0.000s      0.002w     43 calls
DFH: Grabbing AOs                   :      0.000u      0.000s      0.000w     43 calls
DFH: compute_J                      :      0.000u      0.000s      0.000w     43 calls
DFH: compute_K                      :      0.000u      0.000s      0.001w     43 calls
JK: AO2USO                          :      0.000u      0.000s      0.000w     43 calls
HF: Form F                          :      0.000u      0.000s      0.000w     43 calls
HF: DIIS                            :      0.117u      0.017s      0.077w     43 calls
HF: Form C                          :      0.000u      0.000s      0.006w     43 calls
HF: Form D                          :      0.000u      0.000s      0.000w     43 calls

--------------------------------------------------------------------------------------
DFH: sparsity prep                  :      0.017u      0.000s      0.024w      7 calls
| Libint2ERI::Libint2ERI            :      0.000u      0.000s      0.017w      7 calls
DFH: initialize()                   :      0.067u      0.017s      0.034w      7 calls
| Libint2ERI::Libint2ERI            :      0.000u      0.017s      0.010w     14 calls
| DFH: AO Construction              :      0.000u      0.000s      0.004w      7 calls
| DFH: AO-Met. Contraction          :      0.017u      0.000s      0.001w      7 calls
HF: Form core H                     :      0.000u      0.000s      0.005w      7 calls
HF: Form S/X                        :      0.000u      0.000s      0.001w      7 calls
HF: Guess                           :      0.000u      0.000s      0.000w      7 calls
HF: Form G                          :      0.000u      0.000s      0.003w     43 calls
| JK: D                             :      0.000u      0.000s      0.000w     43 calls
| JK: USO2AO                        :      0.000u      0.000s      0.000w     43 calls
| JK: JK                            :      0.000u      0.000s      0.002w     43 calls
| | DFH: compute_JK()               :      0.000u      0.000s      0.002w     43 calls
| | | DFH: Grabbing AOs             :      0.000u      0.000s      0.000w     43 calls
| | | DFH: compute_J                :      0.000u      0.000s      0.000w     43 calls
| | | DFH: compute_K                :      0.000u      0.000s      0.001w     43 calls
| JK: AO2USO                        :      0.000u      0.000s      0.000w     43 calls
HF: Form F                          :      0.000u      0.000s      0.000w     43 calls
HF: DIIS                            :      0.117u      0.017s      0.077w     43 calls
HF: Form C                          :      0.000u      0.000s      0.006w     43 calls
HF: Form D                          :      0.000u      0.000s      0.000w     43 calls

**************************************************************************************

Host: DESKTOP-LU4DJEU

Timers On : Sun Dec 17 15:35:10 2023
Timers Off: Sun Dec 17 15:35:12 2023

Wall Time:        1.43 seconds

                                                       Time (seconds)
Module                                       User      System        Wall        Calls
DFH: sparsity prep                  :      0.017u      0.000s      0.021w      7 calls
Libint2ERI::Libint2ERI              :      0.033u      0.000s      0.026w     21 calls
DFH: initialize()                   :      0.083u      0.000s      0.034w      7 calls
DFH: AO Construction                :      0.000u      0.000s      0.004w      7 calls
DFH: AO-Met. Contraction            :      0.017u      0.000s      0.001w      7 calls
HF: Form core H                     :      0.017u      0.000s      0.003w      7 calls
HF: Form S/X                        :      0.000u      0.000s      0.001w      7 calls
HF: Guess                           :      0.000u      0.000s      0.000w      7 calls
HF: Form G                          :      0.000u      0.000s      0.003w     43 calls
JK: D                               :      0.000u      0.000s      0.000w     43 calls
JK: USO2AO                          :      0.000u      0.000s      0.000w     43 calls
JK: JK                              :      0.000u      0.000s      0.002w     43 calls
DFH: compute_JK()                   :      0.000u      0.000s      0.002w     43 calls
DFH: Grabbing AOs                   :      0.000u      0.000s      0.000w     43 calls
DFH: compute_J                      :      0.000u      0.000s      0.000w     43 calls
DFH: compute_K                      :      0.000u      0.000s      0.001w     43 calls
JK: AO2USO                          :      0.000u      0.000s      0.000w     43 calls
HF: Form F                          :      0.000u      0.000s      0.000w     43 calls
HF: DIIS                            :      0.083u      0.000s      0.073w     43 calls
HF: Form C                          :      0.000u      0.000s      0.006w     43 calls
HF: Form D                          :      0.000u      0.000s      0.000w     43 calls

--------------------------------------------------------------------------------------
DFH: sparsity prep                  :      0.017u      0.000s      0.021w      7 calls
| Libint2ERI::Libint2ERI            :      0.017u      0.000s      0.015w      7 calls
DFH: initialize()                   :      0.083u      0.000s      0.034w      7 calls
| Libint2ERI::Libint2ERI            :      0.017u      0.000s      0.011w     14 calls
| DFH: AO Construction              :      0.000u      0.000s      0.004w      7 calls
| DFH: AO-Met. Contraction          :      0.017u      0.000s      0.001w      7 calls
HF: Form core H                     :      0.017u      0.000s      0.003w      7 calls
HF: Form S/X                        :      0.000u      0.000s      0.001w      7 calls
HF: Guess                           :      0.000u      0.000s      0.000w      7 calls
HF: Form G                          :      0.000u      0.000s      0.003w     43 calls
| JK: D                             :      0.000u      0.000s      0.000w     43 calls
| JK: USO2AO                        :      0.000u      0.000s      0.000w     43 calls
| JK: JK                            :      0.000u      0.000s      0.002w     43 calls
| | DFH: compute_JK()               :      0.000u      0.000s      0.002w     43 calls
| | | DFH: Grabbing AOs             :      0.000u      0.000s      0.000w     43 calls
| | | DFH: compute_J                :      0.000u      0.000s      0.000w     43 calls
| | | DFH: compute_K                :      0.000u      0.000s      0.001w     43 calls
| JK: AO2USO                        :      0.000u      0.000s      0.000w     43 calls
HF: Form F                          :      0.000u      0.000s      0.000w     43 calls
HF: DIIS                            :      0.083u      0.000s      0.073w     43 calls
HF: Form C                          :      0.000u      0.000s      0.006w     43 calls
HF: Form D                          :      0.000u      0.000s      0.000w     43 calls

**************************************************************************************

Host: DESKTOP-LU4DJEU

Timers On : Sun Dec 17 15:35:30 2023
Timers Off: Sun Dec 17 15:35:31 2023

Wall Time:        1.08 seconds

                                                       Time (seconds)
Module                                       User      System        Wall        Calls
DFH: sparsity prep                  :      0.017u      0.000s      0.007w      2 calls
Libint2ERI::Libint2ERI              :      0.017u      0.000s      0.008w      6 calls
DFH: initialize()                   :      0.000u      0.000s      0.010w      2 calls
DFH: AO Construction                :      0.000u      0.000s      0.001w      2 calls
DFH: AO-Met. Contraction            :      0.000u      0.000s      0.000w      2 calls
HF: Form core H                     :      0.017u      0.000s      0.001w      2 calls
HF: Form S/X                        :      0.000u      0.000s      0.000w      2 calls
HF: Guess                           :      0.000u      0.000s      0.000w      2 calls
HF: Form G                          :      0.000u      0.000s      0.001w     12 calls
JK: D                               :      0.000u      0.000s      0.000w     12 calls
JK: USO2AO                          :      0.000u      0.000s      0.000w     12 calls
JK: JK                              :      0.000u      0.000s      0.001w     12 calls
DFH: compute_JK()                   :      0.000u      0.000s      0.001w     12 calls
DFH: Grabbing AOs                   :      0.000u      0.000s      0.000w     12 calls
DFH: compute_J                      :      0.000u      0.000s      0.000w     12 calls
DFH: compute_K                      :      0.000u      0.000s      0.000w     12 calls
JK: AO2USO                          :      0.000u      0.000s      0.000w     12 calls
HF: Form F                          :      0.000u      0.000s      0.000w     12 calls
HF: DIIS                            :      0.033u      0.000s      0.029w     12 calls
HF: Form C                          :      0.000u      0.000s      0.002w     12 calls
HF: Form D                          :      0.000u      0.000s      0.000w     12 calls

--------------------------------------------------------------------------------------
DFH: sparsity prep                  :      0.017u      0.000s      0.007w      2 calls
| Libint2ERI::Libint2ERI            :      0.017u      0.000s      0.005w      2 calls
DFH: initialize()                   :      0.000u      0.000s      0.010w      2 calls
| Libint2ERI::Libint2ERI            :      0.000u      0.000s      0.003w      4 calls
| DFH: AO Construction              :      0.000u      0.000s      0.001w      2 calls
| DFH: AO-Met. Contraction          :      0.000u      0.000s      0.000w      2 calls
HF: Form core H                     :      0.017u      0.000s      0.001w      2 calls
HF: Form S/X                        :      0.000u      0.000s      0.000w      2 calls
HF: Guess                           :      0.000u      0.000s      0.000w      2 calls
HF: Form G                          :      0.000u      0.000s      0.001w     12 calls
| JK: D                             :      0.000u      0.000s      0.000w     12 calls
| JK: USO2AO                        :      0.000u      0.000s      0.000w     12 calls
| JK: JK                            :      0.000u      0.000s      0.001w     12 calls
| | DFH: compute_JK()               :      0.000u      0.000s      0.001w     12 calls
| | | DFH: Grabbing AOs             :      0.000u      0.000s      0.000w     12 calls
| | | DFH: compute_J                :      0.000u      0.000s      0.000w     12 calls
| | | DFH: compute_K                :      0.000u      0.000s      0.000w     12 calls
| JK: AO2USO                        :      0.000u      0.000s      0.000w     12 calls
HF: Form F                          :      0.000u      0.000s      0.000w     12 calls
HF: DIIS                            :      0.033u      0.000s      0.029w     12 calls
HF: Form C                          :      0.000u      0.000s      0.002w     12 calls
HF: Form D                          :      0.000u      0.000s      0.000w     12 calls

**************************************************************************************

Host: DESKTOP-LU4DJEU

Timers On : Sun Dec 17 15:35:43 2023
Timers Off: Sun Dec 17 15:35:44 2023

Wall Time:        1.34 seconds

                                                       Time (seconds)
Module                                       User      System        Wall        Calls

--------------------------------------------------------------------------------------

**************************************************************************************

Host: DESKTOP-LU4DJEU

Timers On : Sun Dec 17 15:37:40 2023
Timers Off: Sun Dec 17 15:37:41 2023

Wall Time:        1.36 seconds

                                                       Time (seconds)
Module                                       User      System        Wall        Calls

--------------------------------------------------------------------------------------

**************************************************************************************

Host: DESKTOP-LU4DJEU

Timers On : Sun Dec 17 15:38:04 2023
Timers Off: Sun Dec 17 15:38:05 2023

Wall Time:        1.33 seconds

                                                       Time (seconds)
Module                                       User      System        Wall        Calls

--------------------------------------------------------------------------------------

**************************************************************************************

Host: DESKTOP-LU4DJEU

Timers On : Sun Dec 17 15:39:11 2023
Timers Off: Sun Dec 17 15:39:12 2023

Wall Time:        1.34 seconds

                                                       Time (seconds)
Module                                       User      System        Wall        Calls

--------------------------------------------------------------------------------------

**************************************************************************************

Host: DESKTOP-LU4DJEU

Timers On : Sun Dec 17 15:40:09 2023
Timers Off: Sun Dec 17 15:40:16 2023

Wall Time:        7.16 seconds

                                                       Time (seconds)
Module                                       User      System        Wall        Calls
DFH: sparsity prep                  :      0.733u      0.050s      0.309w     75 calls
Libint2ERI::Libint2ERI              :      0.667u      0.067s      0.389w    225 calls
DFH: initialize()                   :      0.517u      0.017s      0.407w     75 calls
DFH: AO Construction                :      0.033u      0.000s      0.048w     75 calls
DFH: AO-Met. Contraction            :      0.033u      0.000s      0.009w     75 calls
HF: Form core H                     :      0.033u      0.000s      0.046w     75 calls
HF: Form S/X                        :      0.017u      0.000s      0.006w     75 calls
HF: Guess                           :      0.000u      0.000s      0.004w     75 calls
HF: Form G                          :      0.050u      0.017s      0.065w    505 calls
JK: D                               :      0.017u      0.000s      0.002w    505 calls
JK: USO2AO                          :      0.000u      0.000s      0.008w    505 calls
JK: JK                              :      0.033u      0.017s      0.045w    505 calls
DFH: compute_JK()                   :      0.033u      0.017s      0.044w    505 calls
DFH: Grabbing AOs                   :      0.000u      0.000s      0.000w    505 calls
DFH: compute_J                      :      0.017u      0.000s      0.007w    505 calls
DFH: compute_K                      :      0.017u      0.017s      0.031w    505 calls
JK: AO2USO                          :      0.000u      0.000s      0.006w    505 calls
HF: Form F                          :      0.000u      0.000s      0.001w    505 calls
HF: DIIS                            :      1.517u      0.117s      0.872w    505 calls
HF: Form C                          :      0.183u      0.000s      0.076w    505 calls
HF: Form D                          :      0.000u      0.000s      0.001w    505 calls

--------------------------------------------------------------------------------------
DFH: sparsity prep                  :      0.733u      0.050s      0.309w     75 calls
| Libint2ERI::Libint2ERI            :      0.500u      0.050s      0.221w     75 calls
DFH: initialize()                   :      0.517u      0.017s      0.407w     75 calls
| Libint2ERI::Libint2ERI            :      0.167u      0.017s      0.168w    150 calls
| DFH: AO Construction              :      0.033u      0.000s      0.048w     75 calls
| DFH: AO-Met. Contraction          :      0.033u      0.000s      0.009w     75 calls
HF: Form core H                     :      0.033u      0.000s      0.046w     75 calls
HF: Form S/X                        :      0.017u      0.000s      0.006w     75 calls
HF: Guess                           :      0.000u      0.000s      0.004w     75 calls
HF: Form G                          :      0.050u      0.017s      0.065w    505 calls
| JK: D                             :      0.017u      0.000s      0.002w    505 calls
| JK: USO2AO                        :      0.000u      0.000s      0.008w    505 calls
| JK: JK                            :      0.033u      0.017s      0.045w    505 calls
| | DFH: compute_JK()               :      0.033u      0.017s      0.044w    505 calls
| | | DFH: Grabbing AOs             :      0.000u      0.000s      0.000w    505 calls
| | | DFH: compute_J                :      0.017u      0.000s      0.007w    505 calls
| | | DFH: compute_K                :      0.017u      0.017s      0.031w    505 calls
| JK: AO2USO                        :      0.000u      0.000s      0.006w    505 calls
HF: Form F                          :      0.000u      0.000s      0.001w    505 calls
HF: DIIS                            :      1.517u      0.117s      0.872w    505 calls
HF: Form C                          :      0.183u      0.000s      0.076w    505 calls
HF: Form D                          :      0.000u      0.000s      0.001w    505 calls

**************************************************************************************

Host: DESKTOP-LU4DJEU

Timers On : Sun Dec 17 17:47:09 2023
Timers Off: Sun Dec 17 17:52:55 2023

Wall Time:      346.02 seconds

                                                       Time (seconds)
Module                                       User      System        Wall        Calls
DFH: sparsity prep                  :      3.433u      0.033s      2.089w      1 calls
Libint2ERI::Libint2ERI              :      6.783u      0.033s      4.092w      4 calls
JK: (A|Q)^-1                        :     23.767u      2.283s     14.314w      1 calls
JK: (A|mn)                          :     38.917u      0.233s     23.387w     27 calls
JK: (Q|mn)                          :     98.167u      0.033s     58.953w     27 calls
JK: (Q|mn) Write                    :      0.133u      0.867s      1.470w     27 calls
HF: Form core H                     :      3.233u      0.017s      1.943w      1 calls
HF: Form S/X                        :      0.367u      0.000s      0.227w      1 calls
HF: Guess                           :      0.167u      0.000s      0.106w      1 calls
SAD Guess                           :      0.167u      0.000s      0.104w      1 calls
HF: Form G                          :    384.200u      6.933s    234.685w     11 calls
JK: D                               :      0.083u      0.000s      0.038w     11 calls
JK: USO2AO                          :      0.000u      0.000s      0.000w     11 calls
JK: JK                              :    384.067u      6.933s    234.631w     11 calls
JK: (Q|mn) Read                     :      0.533u      4.517s      3.879w    259 calls
JK: J                               :      4.033u      2.083s      3.076w    259 calls
JK: J1                              :      1.767u      1.950s      1.405w    259 calls
JK: J2                              :      1.983u      0.133s      1.382w    259 calls
JK: K                               :    379.450u      0.333s    227.656w    259 calls
JK: K1                              :    157.517u      0.333s     94.613w    259 calls
JK: K2                              :    221.850u      0.000s    133.008w    259 calls
JK: AO2USO                          :      0.000u      0.000s      0.000w     11 calls
HF: Form F                          :      0.017u      0.000s      0.006w     11 calls
HF: Form D                          :      0.017u      0.000s      0.037w     11 calls
HF: DIIS                            :      1.167u      0.183s      0.804w     10 calls
HF: Form C                          :      3.200u      0.000s      1.911w     10 calls

--------------------------------------------------------------------------------------
DFH: sparsity prep                  :      3.433u      0.033s      2.089w      1 calls
| Libint2ERI::Libint2ERI            :      2.250u      0.033s      1.376w      1 calls
Libint2ERI::Libint2ERI              :      4.533u      0.000s      2.716w      2 calls
JK: (A|Q)^-1                        :     23.767u      2.283s     14.314w      1 calls
| Libint2ERI::Libint2ERI            :      0.000u      0.000s      0.000w      1 calls
JK: (A|mn)                          :     38.917u      0.233s     23.387w     27 calls
JK: (Q|mn)                          :     98.167u      0.033s     58.953w     27 calls
JK: (Q|mn) Write                    :      0.133u      0.867s      1.470w     27 calls
HF: Form core H                     :      3.233u      0.017s      1.943w      1 calls
HF: Form S/X                        :      0.367u      0.000s      0.227w      1 calls
HF: Guess                           :      0.167u      0.000s      0.106w      1 calls
| SAD Guess                         :      0.167u      0.000s      0.104w      1 calls
HF: Form G                          :    384.200u      6.933s    234.685w     11 calls
| JK: D                             :      0.083u      0.000s      0.038w     11 calls
| JK: USO2AO                        :      0.000u      0.000s      0.000w     11 calls
| JK: JK                            :    384.067u      6.933s    234.631w     11 calls
| | JK: (Q|mn) Read                 :      0.533u      4.517s      3.879w    259 calls
| | JK: J                           :      4.033u      2.083s      3.076w    259 calls
| | | JK: J1                        :      1.767u      1.950s      1.405w    259 calls
| | | JK: J2                        :      1.983u      0.133s      1.382w    259 calls
| | JK: K                           :    379.450u      0.333s    227.656w    259 calls
| | | JK: K1                        :    157.517u      0.333s     94.613w    259 calls
| | | JK: K2                        :    221.850u      0.000s    133.008w    259 calls
| JK: AO2USO                        :      0.000u      0.000s      0.000w     11 calls
HF: Form F                          :      0.017u      0.000s      0.006w     11 calls
HF: Form D                          :      0.017u      0.000s      0.037w     11 calls
HF: DIIS                            :      1.167u      0.183s      0.804w     10 calls
HF: Form C                          :      3.200u      0.000s      1.911w     10 calls

**************************************************************************************

Host: DESKTOP-LU4DJEU

Timers On : Sun Dec 17 17:53:36 2023
Timers Off: Sun Dec 17 17:53:37 2023

Wall Time:        1.31 seconds

                                                       Time (seconds)
Module                                       User      System        Wall        Calls

--------------------------------------------------------------------------------------

**************************************************************************************

Host: DESKTOP-LU4DJEU

Timers On : Sun Dec 17 18:04:41 2023
Timers Off: Sun Dec 17 18:04:42 2023

Wall Time:        1.34 seconds

                                                       Time (seconds)
Module                                       User      System        Wall        Calls

--------------------------------------------------------------------------------------

**************************************************************************************

Host: DESKTOP-LU4DJEU

Timers On : Sun Dec 17 18:06:05 2023
Timers Off: Sun Dec 17 18:06:07 2023

Wall Time:        1.34 seconds

                                                       Time (seconds)
Module                                       User      System        Wall        Calls

--------------------------------------------------------------------------------------

**************************************************************************************

Host: DESKTOP-LU4DJEU

Timers On : Sun Dec 17 18:06:58 2023
Timers Off: Sun Dec 17 18:06:59 2023

Wall Time:        1.33 seconds

                                                       Time (seconds)
Module                                       User      System        Wall        Calls

--------------------------------------------------------------------------------------

**************************************************************************************

Host: DESKTOP-LU4DJEU

Timers On : Sun Dec 17 18:07:20 2023
Timers Off: Sun Dec 17 18:07:21 2023

Wall Time:        1.32 seconds

                                                       Time (seconds)
Module                                       User      System        Wall        Calls

--------------------------------------------------------------------------------------

**************************************************************************************

Host: DESKTOP-LU4DJEU

Timers On : Sun Dec 17 18:07:57 2023
Timers Off: Sun Dec 17 18:07:58 2023

Wall Time:        1.32 seconds

                                                       Time (seconds)
Module                                       User      System        Wall        Calls

--------------------------------------------------------------------------------------

**************************************************************************************

Host: DESKTOP-LU4DJEU

Timers On : Sun Dec 17 18:09:46 2023
Timers Off: Sun Dec 17 18:09:47 2023

Wall Time:        1.31 seconds

                                                       Time (seconds)
Module                                       User      System        Wall        Calls

--------------------------------------------------------------------------------------

**************************************************************************************

Host: DESKTOP-LU4DJEU

Timers On : Sun Dec 17 18:17:01 2023
Timers Off: Sun Dec 17 18:17:02 2023

Wall Time:        1.33 seconds

                                                       Time (seconds)
Module                                       User      System        Wall        Calls

--------------------------------------------------------------------------------------

**************************************************************************************

Host: DESKTOP-LU4DJEU

Timers On : Sun Dec 17 18:20:42 2023
Timers Off: Sun Dec 17 18:20:43 2023

Wall Time:        1.35 seconds

                                                       Time (seconds)
Module                                       User      System        Wall        Calls

--------------------------------------------------------------------------------------

**************************************************************************************

Host: DESKTOP-LU4DJEU

Timers On : Sun Dec 17 18:21:58 2023
Timers Off: Sun Dec 17 18:21:59 2023

Wall Time:        1.34 seconds

                                                       Time (seconds)
Module                                       User      System        Wall        Calls

--------------------------------------------------------------------------------------

**************************************************************************************

Host: DESKTOP-LU4DJEU

Timers On : Sun Dec 17 18:22:31 2023
Timers Off: Sun Dec 17 18:22:33 2023

Wall Time:        1.35 seconds

                                                       Time (seconds)
Module                                       User      System        Wall        Calls

--------------------------------------------------------------------------------------

**************************************************************************************

Host: DESKTOP-LU4DJEU

Timers On : Sun Dec 17 18:22:53 2023
Timers Off: Sun Dec 17 18:22:54 2023

Wall Time:        1.34 seconds

                                                       Time (seconds)
Module                                       User      System        Wall        Calls

--------------------------------------------------------------------------------------

**************************************************************************************

Host: DESKTOP-LU4DJEU

Timers On : Sun Dec 17 18:23:06 2023
Timers Off: Sun Dec 17 18:23:08 2023

Wall Time:        1.34 seconds

                                                       Time (seconds)
Module                                       User      System        Wall        Calls

--------------------------------------------------------------------------------------

**************************************************************************************

Host: DESKTOP-LU4DJEU

Timers On : Sun Dec 17 18:23:19 2023
Timers Off: Sun Dec 17 18:23:20 2023

Wall Time:        1.33 seconds

                                                       Time (seconds)
Module                                       User      System        Wall        Calls

--------------------------------------------------------------------------------------

**************************************************************************************

Host: DESKTOP-LU4DJEU

Timers On : Sun Dec 17 18:23:39 2023
Timers Off: Sun Dec 17 18:23:40 2023

Wall Time:        1.36 seconds

                                                       Time (seconds)
Module                                       User      System        Wall        Calls

--------------------------------------------------------------------------------------

**************************************************************************************

Host: DESKTOP-LU4DJEU

Timers On : Sun Dec 17 18:24:16 2023
Timers Off: Sun Dec 17 18:24:18 2023

Wall Time:        1.36 seconds

                                                       Time (seconds)
Module                                       User      System        Wall        Calls

--------------------------------------------------------------------------------------

**************************************************************************************

Host: DESKTOP-LU4DJEU

Timers On : Sun Dec 17 18:25:28 2023
Timers Off: Sun Dec 17 18:25:30 2023

Wall Time:        1.33 seconds

                                                       Time (seconds)
Module                                       User      System        Wall        Calls

--------------------------------------------------------------------------------------

**************************************************************************************

Host: DESKTOP-LU4DJEU

Timers On : Sun Dec 17 18:25:41 2023
Timers Off: Sun Dec 17 18:25:43 2023

Wall Time:        2.56 seconds

                                                       Time (seconds)
Module                                       User      System        Wall        Calls

--------------------------------------------------------------------------------------

**************************************************************************************

Host: DESKTOP-LU4DJEU

Timers On : Sun Dec 17 18:26:38 2023
Timers Off: Sun Dec 17 18:26:45 2023

Wall Time:        6.07 seconds

                                                       Time (seconds)
Module                                       User      System        Wall        Calls

--------------------------------------------------------------------------------------

**************************************************************************************

Host: DESKTOP-LU4DJEU

Timers On : Sun Dec 17 18:31:07 2023
Timers Off: Sun Dec 17 18:31:11 2023

Wall Time:        3.72 seconds

                                                       Time (seconds)
Module                                       User      System        Wall        Calls

--------------------------------------------------------------------------------------

**************************************************************************************

Host: DESKTOP-LU4DJEU

Timers On : Sun Dec 17 18:36:34 2023
Timers Off: Sun Dec 17 18:36:38 2023

Wall Time:        3.70 seconds

                                                       Time (seconds)
Module                                       User      System        Wall        Calls

--------------------------------------------------------------------------------------

**************************************************************************************

Host: DESKTOP-LU4DJEU

Timers On : Sun Dec 17 18:37:06 2023
Timers Off: Sun Dec 17 18:37:24 2023

Wall Time:       17.53 seconds

                                                       Time (seconds)
Module                                       User      System        Wall        Calls

--------------------------------------------------------------------------------------

**************************************************************************************

Host: DESKTOP-LU4DJEU

Timers On : Sun Dec 17 18:42:12 2023
Timers Off: Sun Dec 17 18:42:13 2023

Wall Time:        0.86 seconds

                                                       Time (seconds)
Module                                       User      System        Wall        Calls

--------------------------------------------------------------------------------------

**************************************************************************************

Host: DESKTOP-LU4DJEU

Timers On : Sun Dec 17 18:42:29 2023
Timers Off: Sun Dec 17 18:42:46 2023

Wall Time:       17.46 seconds

                                                       Time (seconds)
Module                                       User      System        Wall        Calls

--------------------------------------------------------------------------------------

**************************************************************************************

Host: DESKTOP-LU4DJEU

Timers On : Sun Dec 17 18:46:13 2023
Timers Off: Sun Dec 17 18:46:16 2023

Wall Time:        3.17 seconds

                                                       Time (seconds)
Module                                       User      System        Wall        Calls

--------------------------------------------------------------------------------------

**************************************************************************************

Host: DESKTOP-LU4DJEU

Timers On : Sun Dec 17 18:46:47 2023
Timers Off: Sun Dec 17 18:46:53 2023

Wall Time:        6.70 seconds

                                                       Time (seconds)
Module                                       User      System        Wall        Calls

--------------------------------------------------------------------------------------

**************************************************************************************

Host: DESKTOP-LU4DJEU

Timers On : Sun Dec 17 18:48:51 2023
Timers Off: Sun Dec 17 18:49:08 2023

Wall Time:       17.50 seconds

                                                       Time (seconds)
Module                                       User      System        Wall        Calls

--------------------------------------------------------------------------------------

**************************************************************************************

Host: DESKTOP-LU4DJEU

Timers On : Sun Dec 17 18:50:21 2023
Timers Off: Sun Dec 17 18:50:58 2023

Wall Time:       36.32 seconds

                                                       Time (seconds)
Module                                       User      System        Wall        Calls

--------------------------------------------------------------------------------------

**************************************************************************************

Host: DESKTOP-LU4DJEU

Timers On : Sun Dec 17 18:54:54 2023
Timers Off: Sun Dec 17 18:55:30 2023

Wall Time:       35.94 seconds

                                                       Time (seconds)
Module                                       User      System        Wall        Calls

--------------------------------------------------------------------------------------

**************************************************************************************

Host: DESKTOP-LU4DJEU

Timers On : Sun Dec 17 18:57:13 2023
Timers Off: Sun Dec 17 18:58:06 2023

Wall Time:       53.58 seconds

                                                       Time (seconds)
Module                                       User      System        Wall        Calls

--------------------------------------------------------------------------------------

**************************************************************************************

Host: DESKTOP-LU4DJEU

Timers On : Sun Dec 17 18:58:18 2023
Timers Off: Sun Dec 17 18:58:37 2023

Wall Time:       19.70 seconds

                                                       Time (seconds)
Module                                       User      System        Wall        Calls

--------------------------------------------------------------------------------------

**************************************************************************************

Host: DESKTOP-LU4DJEU

Timers On : Sun Dec 17 18:59:08 2023
Timers Off: Sun Dec 17 18:59:35 2023

Wall Time:       26.65 seconds

                                                       Time (seconds)
Module                                       User      System        Wall        Calls

--------------------------------------------------------------------------------------

**************************************************************************************

Host: DESKTOP-LU4DJEU

Timers On : Mon Dec 18 22:40:17 2023
Timers Off: Mon Dec 18 22:40:53 2023

Wall Time:       36.55 seconds

                                                       Time (seconds)
Module                                       User      System        Wall        Calls

--------------------------------------------------------------------------------------

**************************************************************************************

Host: DESKTOP-LU4DJEU

Timers On : Mon Dec 18 22:58:19 2023
Timers Off: Mon Dec 18 22:58:20 2023

Wall Time:        0.83 seconds

                                                       Time (seconds)
Module                                       User      System        Wall        Calls

--------------------------------------------------------------------------------------

**************************************************************************************

Host: DESKTOP-LU4DJEU

Timers On : Mon Dec 18 22:58:52 2023
Timers Off: Mon Dec 18 22:58:53 2023

Wall Time:        0.85 seconds

                                                       Time (seconds)
Module                                       User      System        Wall        Calls

--------------------------------------------------------------------------------------

**************************************************************************************

Host: DESKTOP-LU4DJEU

Timers On : Mon Dec 18 22:59:12 2023
Timers Off: Mon Dec 18 22:59:15 2023

Wall Time:        3.07 seconds

                                                       Time (seconds)
Module                                       User      System        Wall        Calls

--------------------------------------------------------------------------------------

**************************************************************************************

Host: DESKTOP-LU4DJEU

Timers On : Mon Dec 18 22:59:21 2023
Timers Off: Mon Dec 18 22:59:27 2023

Wall Time:        6.59 seconds

                                                       Time (seconds)
Module                                       User      System        Wall        Calls

--------------------------------------------------------------------------------------

**************************************************************************************

Host: DESKTOP-LU4DJEU

Timers On : Mon Dec 18 23:01:46 2023
Timers Off: Mon Dec 18 23:03:02 2023

Wall Time:       76.30 seconds

                                                       Time (seconds)
Module                                       User      System        Wall        Calls

--------------------------------------------------------------------------------------

**************************************************************************************

Host: DESKTOP-LU4DJEU

Timers On : Mon Dec 18 23:04:30 2023
Timers Off: Mon Dec 18 23:53:20 2023

Wall Time:     2930.32 seconds

                                                       Time (seconds)
Module                                       User      System        Wall        Calls

--------------------------------------------------------------------------------------

**************************************************************************************

Host: DESKTOP-LU4DJEU

Timers On : Tue Dec 19 22:55:43 2023
Timers Off: Tue Dec 19 22:55:45 2023

Wall Time:        1.67 seconds

                                                       Time (seconds)
Module                                       User      System        Wall        Calls

--------------------------------------------------------------------------------------

**************************************************************************************

Host: DESKTOP-LU4DJEU

Timers On : Tue Dec 19 22:56:32 2023
Timers Off: Tue Dec 19 22:56:35 2023

Wall Time:        3.30 seconds

                                                       Time (seconds)
Module                                       User      System        Wall        Calls

--------------------------------------------------------------------------------------

**************************************************************************************

Host: DESKTOP-LU4DJEU

Timers On : Tue Dec 19 22:56:42 2023
Timers Off: Tue Dec 19 22:56:45 2023

Wall Time:        3.29 seconds

                                                       Time (seconds)
Module                                       User      System        Wall        Calls

--------------------------------------------------------------------------------------

**************************************************************************************

Host: DESKTOP-LU4DJEU

Timers On : Tue Dec 19 23:00:42 2023
Timers Off: Tue Dec 19 23:00:45 2023

Wall Time:        3.23 seconds

                                                       Time (seconds)
Module                                       User      System        Wall        Calls

--------------------------------------------------------------------------------------

**************************************************************************************

Host: DESKTOP-LU4DJEU

Timers On : Tue Dec 19 23:01:30 2023
Timers Off: Tue Dec 19 23:01:30 2023

Wall Time:        0.22 seconds

                                                       Time (seconds)
Module                                       User      System        Wall        Calls

--------------------------------------------------------------------------------------

**************************************************************************************

Host: DESKTOP-LU4DJEU

Timers On : Tue Dec 19 23:02:12 2023
Timers Off: Tue Dec 19 23:02:15 2023

Wall Time:        3.22 seconds

                                                       Time (seconds)
[...]

Host: DESKTOP-LU4DJEU

Timers On : Sun Dec 24 21:49:15 2023
Timers Off: Sun Dec 24 21:49:18 2023

Wall Time:        3.22 seconds

                                                       Time (seconds)
Module                                       User      System        Wall        Calls

--------------------------------------------------------------------------------------

**************************************************************************************

Host: DESKTOP-LU4DJEU

Timers On : Sun Dec 24 21:52:45 2023
Timers Off: Sun Dec 24 21:52:48 2023

Wall Time:        3.19 seconds

                                                       Time (seconds)
Module                                       User      System        Wall        Calls

--------------------------------------------------------------------------------------

**************************************************************************************

Host: DESKTOP-LU4DJEU

Timers On : Sun Dec 24 21:55:57 2023
Timers Off: Sun Dec 24 21:56:00 2023

Wall Time:        3.17 seconds

                                                       Time (seconds)
Module                                       User      System        Wall        Calls

--------------------------------------------------------------------------------------

**************************************************************************************

Host: DESKTOP-LU4DJEU

Timers On : Sun Dec 24 22:02:34 2023
Timers Off: Sun Dec 24 22:02:35 2023

Wall Time:        1.05 seconds

                                                       Time (seconds)
Module                                       User      System        Wall        Calls

--------------------------------------------------------------------------------------

**************************************************************************************

Host: DESKTOP-LU4DJEU

Timers On : Sun Dec 24 22:02:48 2023
Timers Off: Sun Dec 24 22:02:49 2023

Wall Time:        1.01 seconds

                                                       Time (seconds)
Module                                       User      System        Wall        Calls

--------------------------------------------------------------------------------------

**************************************************************************************

Host: DESKTOP-LU4DJEU

Timers On : Sun Dec 24 22:02:59 2023
Timers Off: Sun Dec 24 22:03:02 2023

Wall Time:        3.15 seconds

                                                       Time (seconds)
Module                                       User      System        Wall        Calls

--------------------------------------------------------------------------------------

**************************************************************************************

Host: DESKTOP-LU4DJEU

Timers On : Sun Dec 24 22:03:47 2023
Timers Off: Sun Dec 24 22:03:50 2023

Wall Time:        3.20 seconds

                                                       Time (seconds)
Module                                       User      System        Wall        Calls

--------------------------------------------------------------------------------------

**************************************************************************************

Host: DESKTOP-LU4DJEU

Timers On : Sun Dec 24 22:04:50 2023
Timers Off: Sun Dec 24 22:04:53 2023

Wall Time:        3.21 seconds

                                                       Time (seconds)
Module                                       User      System        Wall        Calls

--------------------------------------------------------------------------------------

**************************************************************************************

Host: DESKTOP-LU4DJEU

Timers On : Sun Dec 24 22:06:01 2023
Timers Off: Sun Dec 24 22:06:04 2023

Wall Time:        3.21 seconds

                                                       Time (seconds)
Module                                       User      System        Wall        Calls

--------------------------------------------------------------------------------------

**************************************************************************************

Host: DESKTOP-LU4DJEU

Timers On : Sun Dec 24 22:07:33 2023
Timers Off: Sun Dec 24 22:07:37 2023

Wall Time:        3.19 seconds

                                                       Time (seconds)
Module                                       User      System        Wall        Calls

--------------------------------------------------------------------------------------

**************************************************************************************

Host: DESKTOP-LU4DJEU

Timers On : Sun Dec 24 22:08:12 2023
Timers Off: Sun Dec 24 22:08:15 2023

Wall Time:        3.23 seconds

                                                       Time (seconds)
Module                                       User      System        Wall        Calls

--------------------------------------------------------------------------------------

**************************************************************************************

Host: DESKTOP-LU4DJEU

Timers On : Sun Dec 24 22:09:37 2023
Timers Off: Sun Dec 24 22:09:40 2023

Wall Time:        3.23 seconds

                                                       Time (seconds)
Module                                       User      System        Wall        Calls

--------------------------------------------------------------------------------------

**************************************************************************************

Host: DESKTOP-LU4DJEU

Timers On : Sun Dec 24 22:13:19 2023
Timers Off: Sun Dec 24 22:13:23 2023

Wall Time:        3.25 seconds

                                                       Time (seconds)
Module                                       User      System        Wall        Calls

--------------------------------------------------------------------------------------

**************************************************************************************

Host: DESKTOP-LU4DJEU

Timers On : Sun Dec 24 22:13:39 2023
Timers Off: Sun Dec 24 22:13:42 2023

Wall Time:        3.35 seconds

                                                       Time (seconds)
Module                                       User      System        Wall        Calls

--------------------------------------------------------------------------------------

**************************************************************************************

Host: DESKTOP-LU4DJEU

Timers On : Sun Dec 24 22:14:27 2023
Timers Off: Sun Dec 24 22:14:30 2023

Wall Time:        3.26 seconds

                                                       Time (seconds)
Module                                       User      System        Wall        Calls

--------------------------------------------------------------------------------------

**************************************************************************************

Host: DESKTOP-LU4DJEU

Timers On : Sun Dec 24 22:15:01 2023
Timers Off: Sun Dec 24 22:15:04 2023

Wall Time:        3.35 seconds

                                                       Time (seconds)
Module                                       User      System        Wall        Calls

--------------------------------------------------------------------------------------

**************************************************************************************

Host: DESKTOP-LU4DJEU

Timers On : Sun Dec 24 22:16:31 2023
Timers Off: Sun Dec 24 22:16:34 2023

Wall Time:        3.23 seconds

                                                       Time (seconds)
Module                                       User      System        Wall        Calls

--------------------------------------------------------------------------------------

**************************************************************************************

Host: DESKTOP-LU4DJEU

Timers On : Sun Dec 24 22:17:15 2023
Timers Off: Sun Dec 24 22:17:18 2023

Wall Time:        3.31 seconds

                                                       Time (seconds)
Module                                       User      System        Wall        Calls

--------------------------------------------------------------------------------------

**************************************************************************************

Host: DESKTOP-LU4DJEU

Timers On : Sun Dec 24 22:18:11 2023
Timers Off: Sun Dec 24 22:18:15 2023

Wall Time:        3.27 seconds

                                                       Time (seconds)
Module                                       User      System        Wall        Calls

--------------------------------------------------------------------------------------

**************************************************************************************

Host: DESKTOP-LU4DJEU

Timers On : Sun Dec 24 22:57:18 2023
Timers Off: Sun Dec 24 22:57:23 2023

Wall Time:        5.14 seconds

                                                       Time (seconds)
Module                                       User      System        Wall        Calls

--------------------------------------------------------------------------------------

**************************************************************************************

Host: DESKTOP-LU4DJEU

Timers On : Sun Dec 24 22:57:55 2023
Timers Off: Sun Dec 24 22:57:59 2023

Wall Time:        4.21 seconds

                                                       Time (seconds)
Module                                       User      System        Wall        Calls

--------------------------------------------------------------------------------------

**************************************************************************************

Host: DESKTOP-LU4DJEU

Timers On : Sun Dec 24 23:04:41 2023
Timers Off: Sun Dec 24 23:04:47 2023

Wall Time:        5.51 seconds

                                                       Time (seconds)
Module                                       User      System        Wall        Calls

--------------------------------------------------------------------------------------

**************************************************************************************

Host: DESKTOP-LU4DJEU

Timers On : Sun Dec 24 23:06:09 2023
Timers Off: Sun Dec 24 23:06:14 2023

Wall Time:        5.59 seconds

                                                       Time (seconds)
Module                                       User      System        Wall        Calls

--------------------------------------------------------------------------------------

**************************************************************************************

Host: DESKTOP-LU4DJEU

Timers On : Sun Dec 24 23:07:04 2023
Timers Off: Sun Dec 24 23:07:10 2023

Wall Time:        5.64 seconds

                                                       Time (seconds)
Module                                       User      System        Wall        Calls

--------------------------------------------------------------------------------------

**************************************************************************************

Host: DESKTOP-LU4DJEU

Timers On : Sun Dec 24 23:07:43 2023
Timers Off: Sun Dec 24 23:07:49 2023

Wall Time:        5.47 seconds

                                                       Time (seconds)
Module                                       User      System        Wall        Calls

--------------------------------------------------------------------------------------

**************************************************************************************

Host: DESKTOP-LU4DJEU

Timers On : Sun Dec 24 23:09:03 2023
Timers Off: Sun Dec 24 23:09:08 2023

Wall Time:        5.43 seconds

                                                       Time (seconds)
Module                                       User      System        Wall        Calls

--------------------------------------------------------------------------------------

**************************************************************************************

Host: DESKTOP-LU4DJEU

Timers On : Sun Dec 24 23:10:19 2023
Timers Off: Sun Dec 24 23:10:24 2023

Wall Time:        5.38 seconds

                                                       Time (seconds)
Module                                       User      System        Wall        Calls

--------------------------------------------------------------------------------------

**************************************************************************************

Host: DESKTOP-LU4DJEU

Timers On : Sun Dec 24 23:15:43 2023
Timers Off: Sun Dec 24 23:15:49 2023

Wall Time:        5.59 seconds

                                                       Time (seconds)
Module                                       User      System        Wall        Calls

--------------------------------------------------------------------------------------

**************************************************************************************

Host: DESKTOP-LU4DJEU

Timers On : Sun Dec 24 23:16:25 2023
Timers Off: Sun Dec 24 23:16:30 2023

Wall Time:        5.46 seconds

                                                       Time (seconds)
Module                                       User      System        Wall        Calls

--------------------------------------------------------------------------------------

**************************************************************************************

Host: DESKTOP-LU4DJEU

Timers On : Sun Dec 24 23:16:49 2023
Timers Off: Sun Dec 24 23:16:55 2023

Wall Time:        5.52 seconds

                                                       Time (seconds)
Module                                       User      System        Wall        Calls

--------------------------------------------------------------------------------------

**************************************************************************************

Host: DESKTOP-LU4DJEU

Timers On : Sun Dec 24 23:18:02 2023
Timers Off: Sun Dec 24 23:18:07 2023

Wall Time:        5.46 seconds

                                                       Time (seconds)
Module                                       User      System        Wall        Calls

--------------------------------------------------------------------------------------

**************************************************************************************

Host: DESKTOP-LU4DJEU

Timers On : Sun Dec 24 23:18:57 2023
Timers Off: Sun Dec 24 23:19:03 2023

Wall Time:        5.55 seconds

                                                       Time (seconds)
Module                                       User      System        Wall        Calls

--------------------------------------------------------------------------------------

**************************************************************************************

Host: DESKTOP-LU4DJEU

Timers On : Sun Dec 24 23:19:29 2023
Timers Off: Sun Dec 24 23:19:35 2023

Wall Time:        5.49 seconds

                                                       Time (seconds)
Module                                       User      System        Wall        Calls

--------------------------------------------------------------------------------------

**************************************************************************************

Host: DESKTOP-LU4DJEU

Timers On : Sun Dec 24 23:20:28 2023
Timers Off: Sun Dec 24 23:20:33 2023

Wall Time:        5.61 seconds

                                                       Time (seconds)
Module                                       User      System        Wall        Calls

--------------------------------------------------------------------------------------

**************************************************************************************

Host: DESKTOP-LU4DJEU

Timers On : Sun Dec 24 23:21:35 2023
Timers Off: Sun Dec 24 23:21:40 2023

Wall Time:        5.64 seconds

                                                       Time (seconds)
Module                                       User      System        Wall        Calls

--------------------------------------------------------------------------------------

**************************************************************************************

Host: DESKTOP-LU4DJEU

Timers On : Sun Dec 24 23:22:21 2023
Timers Off: Sun Dec 24 23:22:26 2023

Wall Time:        5.59 seconds

                                                       Time (seconds)
Module                                       User      System        Wall        Calls

--------------------------------------------------------------------------------------

**************************************************************************************

Host: DESKTOP-LU4DJEU

Timers On : Sun Dec 24 23:23:14 2023
Timers Off: Sun Dec 24 23:23:20 2023

Wall Time:        5.61 seconds

                                                       Time (seconds)
Module                                       User      System        Wall        Calls

--------------------------------------------------------------------------------------

**************************************************************************************

Host: DESKTOP-LU4DJEU

Timers On : Sun Dec 24 23:24:21 2023
Timers Off: Sun Dec 24 23:24:26 2023

Wall Time:        5.62 seconds

                                                       Time (seconds)
Module                                       User      System        Wall        Calls

--------------------------------------------------------------------------------------

**************************************************************************************

Host: DESKTOP-LU4DJEU

Timers On : Sun Dec 24 23:24:39 2023
Timers Off: Sun Dec 24 23:24:44 2023

Wall Time:        5.56 seconds

                                                       Time (seconds)
Module                                       User      System        Wall        Calls

--------------------------------------------------------------------------------------

**************************************************************************************

Host: DESKTOP-LU4DJEU

Timers On : Sun Dec 24 23:25:20 2023
Timers Off: Sun Dec 24 23:25:26 2023

Wall Time:        5.61 seconds

                                                       Time (seconds)
Module                                       User      System        Wall        Calls

--------------------------------------------------------------------------------------

**************************************************************************************

Host: DESKTOP-LU4DJEU

Timers On : Sun Dec 24 23:26:19 2023
Timers Off: Sun Dec 24 23:26:25 2023

Wall Time:        5.78 seconds

                                                       Time (seconds)
Module                                       User      System        Wall        Calls

--------------------------------------------------------------------------------------

**************************************************************************************

Host: DESKTOP-LU4DJEU

Timers On : Sun Dec 24 23:26:57 2023
Timers Off: Sun Dec 24 23:27:04 2023

Wall Time:        7.06 seconds

                                                       Time (seconds)
Module                                       User      System        Wall        Calls

--------------------------------------------------------------------------------------

**************************************************************************************

Host: DESKTOP-LU4DJEU

Timers On : Sun Dec 24 23:28:17 2023
Timers Off: Sun Dec 24 23:28:50 2023

Wall Time:       33.36 seconds

                                                       Time (seconds)
Module                                       User      System        Wall        Calls

--------------------------------------------------------------------------------------

**************************************************************************************
